NOBELIUM

Symbol: No

Atomic Number: 102

Atomic Weight: 259.1009

Discovery: 1957 (Sweden) by the Nobel Institute for Physics.

Electron Configuration: [Rn] 7s2 5f14

Element Classification: Radioactive Rare Earth Element (Actinide Series)

Melting Point (K): 1100

Appearance: Radioactive, synthetic metal.

Atomic Radius (pm): 285

Pauling Negativity Number: 1.3

First Ionizing Energy (kJ/mol): (640)

        