SAMARIUM

Symbol: Sm

Atomic Number: 62

Atomic Weight: 150.36

Discovery: Boisbaudran 1879 or Jean Charles Galissard de Marignac 1853 (both of France)

Electron Configuration: [Xe] 4f6 6s2

Element Classification: rare earth (lanthanide series)

Density (g/cc): 7.520

Melting Point (K): 1350

Boiling Point (K): 2064

Appearance: silvery metal

Atomic Radius (pm): 181

Covalent Radius (pm): 162

Ionic Radius: 96.4 (+3e)

Specific Heat (@20°C J/g mol): 0.180

First Ionizing Energy (kJ/mol): 540.1

Oxidation States: 3, 2

Lattice Structure: rhombohedral

Lattice Constant (Å): 9.000
     